+ 0.1 0 2 cbr 210 ------- 1 0.0 3.0 0 0
- 0.1 0 2 cbr 210 ------- 1 0.0 3.0 0 0
+ 0.1 1 2 cbr 500 ------- 2 1.0 3.0 0 1
- 0.1 1 2 cbr 500 ------- 2 1.0 3.0 0 1
+ 0.10375 0 2 cbr 210 ------- 1 0.0 3.0 1 2
- 0.10375 0 2 cbr 210 ------- 1 0.0 3.0 1 2
+ 0.105 1 2 cbr 500 ------- 2 1.0 3.0 1 3
- 0.105 1 2 cbr 500 ------- 2 1.0 3.0 1 3
+ 0.1075 0 2 cbr 210 ------- 1 0.0 3.0 2 4
- 0.1075 0 2 cbr 210 ------- 1 0.0 3.0 2 4
+ 0.11 1 2 cbr 500 ------- 2 1.0 3.0 2 5
- 0.11 1 2 cbr 500 ------- 2 1.0 3.0 2 5
+ 0.11125 0 2 cbr 210 ------- 1 0.0 3.0 3 6
- 0.11125 0 2 cbr 210 ------- 1 0.0 3.0 3 6
+ 0.115 1 2 cbr 500 ------- 2 1.0 3.0 3 7
- 0.115 1 2 cbr 500 ------- 2 1.0 3.0 3 7
+ 0.115 0 2 cbr 210 ------- 1 0.0 3.0 4 8
- 0.115 0 2 cbr 210 ------- 1 0.0 3.0 4 8
+ 0.11875 0 2 cbr 210 ------- 1 0.0 3.0 5 9
- 0.11875 0 2 cbr 210 ------- 1 0.0 3.0 5 9
+ 0.12 1 2 cbr 500 ------- 2 1.0 3.0 4 10
- 0.12 1 2 cbr 500 ------- 2 1.0 3.0 4 10
+ 0.1225 0 2 cbr 210 ------- 1 0.0 3.0 6 11
- 0.1225 0 2 cbr 210 ------- 1 0.0 3.0 6 11
+ 0.125 1 2 cbr 500 ------- 2 1.0 3.0 5 12
- 0.125 1 2 cbr 500 ------- 2 1.0 3.0 5 12
+ 0.12625 0 2 cbr 210 ------- 1 0.0 3.0 7 13
- 0.12625 0 2 cbr 210 ------- 1 0.0 3.0 7 13
+ 0.13 1 2 cbr 500 ------- 2 1.0 3.0 6 14
- 0.13 1 2 cbr 500 ------- 2 1.0 3.0 6 14
+ 0.13 0 2 cbr 210 ------- 1 0.0 3.0 8 15
- 0.13 0 2 cbr 210 ------- 1 0.0 3.0 8 15
+ 0.13375 0 2 cbr 210 ------- 1 0.0 3.0 9 16
- 0.13375 0 2 cbr 210 ------- 1 0.0 3.0 9 16
+ 0.135 1 2 cbr 500 ------- 2 1.0 3.0 7 17
- 0.135 1 2 cbr 500 ------- 2 1.0 3.0 7 17
+ 0.1375 0 2 cbr 210 ------- 1 0.0 3.0 10 18
- 0.1375 0 2 cbr 210 ------- 1 0.0 3.0 10 18
+ 0.14 1 2 cbr 500 ------- 2 1.0 3.0 8 19
- 0.14 1 2 cbr 500 ------- 2 1.0 3.0 8 19
+ 0.14125 0 2 cbr 210 ------- 1 0.0 3.0 11 20
- 0.14125 0 2 cbr 210 ------- 1 0.0 3.0 11 20
+ 0.145 1 2 cbr 500 ------- 2 1.0 3.0 9 21
- 0.145 1 2 cbr 500 ------- 2 1.0 3.0 9 21
+ 0.145 0 2 cbr 210 ------- 1 0.0 3.0 12 22
- 0.145 0 2 cbr 210 ------- 1 0.0 3.0 12 22
+ 0.14875 0 2 cbr 210 ------- 1 0.0 3.0 13 23
- 0.14875 0 2 cbr 210 ------- 1 0.0 3.0 13 23
+ 0.15 1 2 cbr 500 ------- 2 1.0 3.0 10 24
- 0.15 1 2 cbr 500 ------- 2 1.0 3.0 10 24
+ 0.1525 0 2 cbr 210 ------- 1 0.0 3.0 14 25
- 0.1525 0 2 cbr 210 ------- 1 0.0 3.0 14 25
+ 0.155 1 2 cbr 500 ------- 2 1.0 3.0 11 26
- 0.155 1 2 cbr 500 ------- 2 1.0 3.0 11 26
+ 0.15625 0 2 cbr 210 ------- 1 0.0 3.0 15 27
- 0.15625 0 2 cbr 210 ------- 1 0.0 3.0 15 27
+ 0.16 1 2 cbr 500 ------- 2 1.0 3.0 12 28
- 0.16 1 2 cbr 500 ------- 2 1.0 3.0 12 28
+ 0.16 0 2 cbr 210 ------- 1 0.0 3.0 16 29
- 0.16 0 2 cbr 210 ------- 1 0.0 3.0 16 29
+ 0.16375 0 2 cbr 210 ------- 1 0.0 3.0 17 30
- 0.16375 0 2 cbr 210 ------- 1 0.0 3.0 17 30
+ 0.165 1 2 cbr 500 ------- 2 1.0 3.0 13 31
- 0.165 1 2 cbr 500 ------- 2 1.0 3.0 13 31
+ 0.1675 0 2 cbr 210 ------- 1 0.0 3.0 18 32
- 0.1675 0 2 cbr 210 ------- 1 0.0 3.0 18 32
+ 0.17 1 2 cbr 500 ------- 2 1.0 3.0 14 33
- 0.17 1 2 cbr 500 ------- 2 1.0 3.0 14 33
+ 0.17125 0 2 cbr 210 ------- 1 0.0 3.0 19 34
- 0.17125 0 2 cbr 210 ------- 1 0.0 3.0 19 34
+ 0.175 1 2 cbr 500 ------- 2 1.0 3.0 15 35
- 0.175 1 2 cbr 500 ------- 2 1.0 3.0 15 35
+ 0.175 0 2 cbr 210 ------- 1 0.0 3.0 20 36
- 0.175 0 2 cbr 210 ------- 1 0.0 3.0 20 36
+ 0.17875 0 2 cbr 210 ------- 1 0.0 3.0 21 37
- 0.17875 0 2 cbr 210 ------- 1 0.0 3.0 21 37
+ 0.18 1 2 cbr 500 ------- 2 1.0 3.0 16 38
- 0.18 1 2 cbr 500 ------- 2 1.0 3.0 16 38
+ 0.1825 0 2 cbr 210 ------- 1 0.0 3.0 22 39
- 0.1825 0 2 cbr 210 ------- 1 0.0 3.0 22 39
+ 0.185 1 2 cbr 500 ------- 2 1.0 3.0 17 40
- 0.185 1 2 cbr 500 ------- 2 1.0 3.0 17 40
+ 0.18625 0 2 cbr 210 ------- 1 0.0 3.0 23 41
- 0.18625 0 2 cbr 210 ------- 1 0.0 3.0 23 41
+ 0.19 1 2 cbr 500 ------- 2 1.0 3.0 18 42
- 0.19 1 2 cbr 500 ------- 2 1.0 3.0 18 42
+ 0.19 0 2 cbr 210 ------- 1 0.0 3.0 24 43
- 0.19 0 2 cbr 210 ------- 1 0.0 3.0 24 43
+ 0.19375 0 2 cbr 210 ------- 1 0.0 3.0 25 44
- 0.19375 0 2 cbr 210 ------- 1 0.0 3.0 25 44
+ 0.195 1 2 cbr 500 ------- 2 1.0 3.0 19 45
- 0.195 1 2 cbr 500 ------- 2 1.0 3.0 19 45
+ 0.1975 0 2 cbr 210 ------- 1 0.0 3.0 26 46
- 0.1975 0 2 cbr 210 ------- 1 0.0 3.0 26 46
+ 0.2 1 2 cbr 500 ------- 2 1.0 3.0 20 47
- 0.2 1 2 cbr 500 ------- 2 1.0 3.0 20 47
+ 0.20125 0 2 cbr 210 ------- 1 0.0 3.0 27 48
- 0.20125 0 2 cbr 210 ------- 1 0.0 3.0 27 48
+ 0.205 1 2 cbr 500 ------- 2 1.0 3.0 21 49
- 0.205 1 2 cbr 500 ------- 2 1.0 3.0 21 49
+ 0.205 0 2 cbr 210 ------- 1 0.0 3.0 28 50
- 0.205 0 2 cbr 210 ------- 1 0.0 3.0 28 50
+ 0.20875 0 2 cbr 210 ------- 1 0.0 3.0 29 51
- 0.20875 0 2 cbr 210 ------- 1 0.0 3.0 29 51
+ 0.21 1 2 cbr 500 ------- 2 1.0 3.0 22 52
- 0.21 1 2 cbr 500 ------- 2 1.0 3.0 22 52
+ 0.2125 0 2 cbr 210 ------- 1 0.0 3.0 30 53
- 0.2125 0 2 cbr 210 ------- 1 0.0 3.0 30 53
+ 0.215 1 2 cbr 500 ------- 2 1.0 3.0 23 54
- 0.215 1 2 cbr 500 ------- 2 1.0 3.0 23 54
+ 0.21625 0 2 cbr 210 ------- 1 0.0 3.0 31 55
- 0.21625 0 2 cbr 210 ------- 1 0.0 3.0 31 55
+ 0.22 1 2 cbr 500 ------- 2 1.0 3.0 24 56
- 0.22 1 2 cbr 500 ------- 2 1.0 3.0 24 56
+ 0.22 0 2 cbr 210 ------- 1 0.0 3.0 32 57
- 0.22 0 2 cbr 210 ------- 1 0.0 3.0 32 57
+ 0.22375 0 2 cbr 210 ------- 1 0.0 3.0 33 58
- 0.22375 0 2 cbr 210 ------- 1 0.0 3.0 33 58
+ 0.225 1 2 cbr 500 ------- 2 1.0 3.0 25 59
- 0.225 1 2 cbr 500 ------- 2 1.0 3.0 25 59
+ 0.2275 0 2 cbr 210 ------- 1 0.0 3.0 34 60
- 0.2275 0 2 cbr 210 ------- 1 0.0 3.0 34 60
+ 0.23 1 2 cbr 500 ------- 2 1.0 3.0 26 61
- 0.23 1 2 cbr 500 ------- 2 1.0 3.0 26 61
+ 0.23125 0 2 cbr 210 ------- 1 0.0 3.0 35 62
- 0.23125 0 2 cbr 210 ------- 1 0.0 3.0 35 62
+ 0.235 1 2 cbr 500 ------- 2 1.0 3.0 27 63
- 0.235 1 2 cbr 500 ------- 2 1.0 3.0 27 63
+ 0.235 0 2 cbr 210 ------- 1 0.0 3.0 36 64
- 0.235 0 2 cbr 210 ------- 1 0.0 3.0 36 64
+ 0.23875 0 2 cbr 210 ------- 1 0.0 3.0 37 65
- 0.23875 0 2 cbr 210 ------- 1 0.0 3.0 37 65
+ 0.24 1 2 cbr 500 ------- 2 1.0 3.0 28 66
- 0.24 1 2 cbr 500 ------- 2 1.0 3.0 28 66
+ 0.2425 0 2 cbr 210 ------- 1 0.0 3.0 38 67
- 0.2425 0 2 cbr 210 ------- 1 0.0 3.0 38 67
+ 0.245 1 2 cbr 500 ------- 2 1.0 3.0 29 68
- 0.245 1 2 cbr 500 ------- 2 1.0 3.0 29 68
+ 0.24625 0 2 cbr 210 ------- 1 0.0 3.0 39 69
- 0.24625 0 2 cbr 210 ------- 1 0.0 3.0 39 69
+ 0.25 1 2 cbr 500 ------- 2 1.0 3.0 30 70
- 0.25 1 2 cbr 500 ------- 2 1.0 3.0 30 70
+ 0.25 0 2 cbr 210 ------- 1 0.0 3.0 40 71
- 0.25 0 2 cbr 210 ------- 1 0.0 3.0 40 71
+ 0.25375 0 2 cbr 210 ------- 1 0.0 3.0 41 72
- 0.25375 0 2 cbr 210 ------- 1 0.0 3.0 41 72
+ 0.255 1 2 cbr 500 ------- 2 1.0 3.0 31 73
- 0.255 1 2 cbr 500 ------- 2 1.0 3.0 31 73
+ 0.2575 0 2 cbr 210 ------- 1 0.0 3.0 42 74
- 0.2575 0 2 cbr 210 ------- 1 0.0 3.0 42 74
+ 0.26 1 2 cbr 500 ------- 2 1.0 3.0 32 75
- 0.26 1 2 cbr 500 ------- 2 1.0 3.0 32 75
+ 0.26125 0 2 cbr 210 ------- 1 0.0 3.0 43 76
- 0.26125 0 2 cbr 210 ------- 1 0.0 3.0 43 76
+ 0.265 0 2 cbr 210 ------- 1 0.0 3.0 44 77
- 0.265 0 2 cbr 210 ------- 1 0.0 3.0 44 77
+ 0.265 1 2 cbr 500 ------- 2 1.0 3.0 33 78
- 0.265 1 2 cbr 500 ------- 2 1.0 3.0 33 78
+ 0.26875 0 2 cbr 210 ------- 1 0.0 3.0 45 79
- 0.26875 0 2 cbr 210 ------- 1 0.0 3.0 45 79
+ 0.27 1 2 cbr 500 ------- 2 1.0 3.0 34 80
- 0.27 1 2 cbr 500 ------- 2 1.0 3.0 34 80
+ 0.2725 0 2 cbr 210 ------- 1 0.0 3.0 46 81
- 0.2725 0 2 cbr 210 ------- 1 0.0 3.0 46 81
+ 0.275 1 2 cbr 500 ------- 2 1.0 3.0 35 82
- 0.275 1 2 cbr 500 ------- 2 1.0 3.0 35 82
+ 0.27625 0 2 cbr 210 ------- 1 0.0 3.0 47 83
- 0.27625 0 2 cbr 210 ------- 1 0.0 3.0 47 83
+ 0.28 0 2 cbr 210 ------- 1 0.0 3.0 48 84
- 0.28 0 2 cbr 210 ------- 1 0.0 3.0 48 84
+ 0.28 1 2 cbr 500 ------- 2 1.0 3.0 36 85
- 0.28 1 2 cbr 500 ------- 2 1.0 3.0 36 85
+ 0.28375 0 2 cbr 210 ------- 1 0.0 3.0 49 86
- 0.28375 0 2 cbr 210 ------- 1 0.0 3.0 49 86
+ 0.285 1 2 cbr 500 ------- 2 1.0 3.0 37 87
- 0.285 1 2 cbr 500 ------- 2 1.0 3.0 37 87
+ 0.2875 0 2 cbr 210 ------- 1 0.0 3.0 50 88
- 0.2875 0 2 cbr 210 ------- 1 0.0 3.0 50 88
+ 0.29 1 2 cbr 500 ------- 2 1.0 3.0 38 89
- 0.29 1 2 cbr 500 ------- 2 1.0 3.0 38 89
+ 0.29125 0 2 cbr 210 ------- 1 0.0 3.0 51 90
- 0.29125 0 2 cbr 210 ------- 1 0.0 3.0 51 90
+ 0.295 0 2 cbr 210 ------- 1 0.0 3.0 52 91
- 0.295 0 2 cbr 210 ------- 1 0.0 3.0 52 91
+ 0.295 1 2 cbr 500 ------- 2 1.0 3.0 39 92
- 0.295 1 2 cbr 500 ------- 2 1.0 3.0 39 92
+ 0.29875 0 2 cbr 210 ------- 1 0.0 3.0 53 93
- 0.29875 0 2 cbr 210 ------- 1 0.0 3.0 53 93
+ 0.3 1 2 cbr 500 ------- 2 1.0 3.0 40 94
- 0.3 1 2 cbr 500 ------- 2 1.0 3.0 40 94
+ 0.3025 0 2 cbr 210 ------- 1 0.0 3.0 54 95
- 0.3025 0 2 cbr 210 ------- 1 0.0 3.0 54 95
+ 0.305 1 2 cbr 500 ------- 2 1.0 3.0 41 96
- 0.305 1 2 cbr 500 ------- 2 1.0 3.0 41 96
+ 0.30625 0 2 cbr 210 ------- 1 0.0 3.0 55 97
- 0.30625 0 2 cbr 210 ------- 1 0.0 3.0 55 97
+ 0.31 0 2 cbr 210 ------- 1 0.0 3.0 56 98
- 0.31 0 2 cbr 210 ------- 1 0.0 3.0 56 98
+ 0.31 1 2 cbr 500 ------- 2 1.0 3.0 42 99
- 0.31 1 2 cbr 500 ------- 2 1.0 3.0 42 99
+ 0.31375 0 2 cbr 210 ------- 1 0.0 3.0 57 100
- 0.31375 0 2 cbr 210 ------- 1 0.0 3.0 57 100
+ 0.315 1 2 cbr 500 ------- 2 1.0 3.0 43 101
- 0.315 1 2 cbr 500 ------- 2 1.0 3.0 43 101
+ 0.3175 0 2 cbr 210 ------- 1 0.0 3.0 58 102
- 0.3175 0 2 cbr 210 ------- 1 0.0 3.0 58 102
+ 0.32 1 2 cbr 500 ------- 2 1.0 3.0 44 103
- 0.32 1 2 cbr 500 ------- 2 1.0 3.0 44 103
+ 0.32125 0 2 cbr 210 ------- 1 0.0 3.0 59 104
- 0.32125 0 2 cbr 210 ------- 1 0.0 3.0 59 104
+ 0.325 0 2 cbr 210 ------- 1 0.0 3.0 60 105
- 0.325 0 2 cbr 210 ------- 1 0.0 3.0 60 105
+ 0.325 1 2 cbr 500 ------- 2 1.0 3.0 45 106
- 0.325 1 2 cbr 500 ------- 2 1.0 3.0 45 106
+ 0.32875 0 2 cbr 210 ------- 1 0.0 3.0 61 107
- 0.32875 0 2 cbr 210 ------- 1 0.0 3.0 61 107
+ 0.33 1 2 cbr 500 ------- 2 1.0 3.0 46 108
- 0.33 1 2 cbr 500 ------- 2 1.0 3.0 46 108
+ 0.3325 0 2 cbr 210 ------- 1 0.0 3.0 62 109
- 0.3325 0 2 cbr 210 ------- 1 0.0 3.0 62 109
+ 0.335 1 2 cbr 500 ------- 2 1.0 3.0 47 110
- 0.335 1 2 cbr 500 ------- 2 1.0 3.0 47 110
+ 0.33625 0 2 cbr 210 ------- 1 0.0 3.0 63 111
- 0.33625 0 2 cbr 210 ------- 1 0.0 3.0 63 111
+ 0.34 0 2 cbr 210 ------- 1 0.0 3.0 64 112
- 0.34 0 2 cbr 210 ------- 1 0.0 3.0 64 112
+ 0.34 1 2 cbr 500 ------- 2 1.0 3.0 48 113
- 0.34 1 2 cbr 500 ------- 2 1.0 3.0 48 113
+ 0.34375 0 2 cbr 210 ------- 1 0.0 3.0 65 114
- 0.34375 0 2 cbr 210 ------- 1 0.0 3.0 65 114
+ 0.345 1 2 cbr 500 ------- 2 1.0 3.0 49 115
- 0.345 1 2 cbr 500 ------- 2 1.0 3.0 49 115
+ 0.3475 0 2 cbr 210 ------- 1 0.0 3.0 66 116
- 0.3475 0 2 cbr 210 ------- 1 0.0 3.0 66 116
+ 0.35 1 2 cbr 500 ------- 2 1.0 3.0 50 117
- 0.35 1 2 cbr 500 ------- 2 1.0 3.0 50 117
+ 0.35125 0 2 cbr 210 ------- 1 0.0 3.0 67 118
- 0.35125 0 2 cbr 210 ------- 1 0.0 3.0 67 118
+ 0.355 0 2 cbr 210 ------- 1 0.0 3.0 68 119
- 0.355 0 2 cbr 210 ------- 1 0.0 3.0 68 119
+ 0.355 1 2 cbr 500 ------- 2 1.0 3.0 51 120
- 0.355 1 2 cbr 500 ------- 2 1.0 3.0 51 120
+ 0.35875 0 2 cbr 210 ------- 1 0.0 3.0 69 121
- 0.35875 0 2 cbr 210 ------- 1 0.0 3.0 69 121
+ 0.36 1 2 cbr 500 ------- 2 1.0 3.0 52 122
- 0.36 1 2 cbr 500 ------- 2 1.0 3.0 52 122
+ 0.3625 0 2 cbr 210 ------- 1 0.0 3.0 70 123
- 0.3625 0 2 cbr 210 ------- 1 0.0 3.0 70 123
+ 0.365 1 2 cbr 500 ------- 2 1.0 3.0 53 124
- 0.365 1 2 cbr 500 ------- 2 1.0 3.0 53 124
+ 0.36625 0 2 cbr 210 ------- 1 0.0 3.0 71 125
- 0.36625 0 2 cbr 210 ------- 1 0.0 3.0 71 125
+ 0.37 0 2 cbr 210 ------- 1 0.0 3.0 72 126
- 0.37 0 2 cbr 210 ------- 1 0.0 3.0 72 126
+ 0.37 1 2 cbr 500 ------- 2 1.0 3.0 54 127
- 0.37 1 2 cbr 500 ------- 2 1.0 3.0 54 127
+ 0.37375 0 2 cbr 210 ------- 1 0.0 3.0 73 128
- 0.37375 0 2 cbr 210 ------- 1 0.0 3.0 73 128
+ 0.375 1 2 cbr 500 ------- 2 1.0 3.0 55 129
- 0.375 1 2 cbr 500 ------- 2 1.0 3.0 55 129
+ 0.3775 0 2 cbr 210 ------- 1 0.0 3.0 74 130
- 0.3775 0 2 cbr 210 ------- 1 0.0 3.0 74 130
+ 0.38 1 2 cbr 500 ------- 2 1.0 3.0 56 131
- 0.38 1 2 cbr 500 ------- 2 1.0 3.0 56 131
+ 0.38125 0 2 cbr 210 ------- 1 0.0 3.0 75 132
- 0.38125 0 2 cbr 210 ------- 1 0.0 3.0 75 132
+ 0.385 0 2 cbr 210 ------- 1 0.0 3.0 76 133
- 0.385 0 2 cbr 210 ------- 1 0.0 3.0 76 133
+ 0.385 1 2 cbr 500 ------- 2 1.0 3.0 57 134
- 0.385 1 2 cbr 500 ------- 2 1.0 3.0 57 134
+ 0.38875 0 2 cbr 210 ------- 1 0.0 3.0 77 135
- 0.38875 0 2 cbr 210 ------- 1 0.0 3.0 77 135
+ 0.39 1 2 cbr 500 ------- 2 1.0 3.0 58 136
- 0.39 1 2 cbr 500 ------- 2 1.0 3.0 58 136
+ 0.3925 0 2 cbr 210 ------- 1 0.0 3.0 78 137
- 0.3925 0 2 cbr 210 ------- 1 0.0 3.0 78 137
+ 0.395 1 2 cbr 500 ------- 2 1.0 3.0 59 138
- 0.395 1 2 cbr 500 ------- 2 1.0 3.0 59 138
+ 0.39625 0 2 cbr 210 ------- 1 0.0 3.0 79 139
- 0.39625 0 2 cbr 210 ------- 1 0.0 3.0 79 139
+ 0.4 0 2 cbr 210 ------- 1 0.0 3.0 80 140
- 0.4 0 2 cbr 210 ------- 1 0.0 3.0 80 140
+ 0.4 1 2 cbr 500 ------- 2 1.0 3.0 60 141
- 0.4 1 2 cbr 500 ------- 2 1.0 3.0 60 141
r 0.400003 0 2 cbr 210 ------- 1 0.0 3.0 0 0
+ 0.400003 2 3 cbr 210 ------- 1 0.0 3.0 0 0
- 0.400003 2 3 cbr 210 ------- 1 0.0 3.0 0 0
r 0.400008 1 2 cbr 500 ------- 2 1.0 3.0 0 1
+ 0.400008 2 3 cbr 500 ------- 2 1.0 3.0 0 1
- 0.400843 2 3 cbr 500 ------- 2 1.0 3.0 0 1
+ 0.40375 0 2 cbr 210 ------- 1 0.0 3.0 81 142
- 0.40375 0 2 cbr 210 ------- 1 0.0 3.0 81 142
r 0.403753 0 2 cbr 210 ------- 1 0.0 3.0 1 2
+ 0.403753 2 3 cbr 210 ------- 1 0.0 3.0 1 2
- 0.403753 2 3 cbr 210 ------- 1 0.0 3.0 1 2
+ 0.405 1 2 cbr 500 ------- 2 1.0 3.0 61 143
- 0.405 1 2 cbr 500 ------- 2 1.0 3.0 61 143
r 0.405008 1 2 cbr 500 ------- 2 1.0 3.0 1 3
+ 0.405008 2 3 cbr 500 ------- 2 1.0 3.0 1 3
- 0.405008 2 3 cbr 500 ------- 2 1.0 3.0 1 3
+ 0.4075 0 2 cbr 210 ------- 1 0.0 3.0 82 144
- 0.4075 0 2 cbr 210 ------- 1 0.0 3.0 82 144
r 0.407503 0 2 cbr 210 ------- 1 0.0 3.0 2 4
+ 0.407503 2 3 cbr 210 ------- 1 0.0 3.0 2 4
- 0.407503 2 3 cbr 210 ------- 1 0.0 3.0 2 4
+ 0.41 1 2 cbr 500 ------- 2 1.0 3.0 62 145
- 0.41 1 2 cbr 500 ------- 2 1.0 3.0 62 145
r 0.410008 1 2 cbr 500 ------- 2 1.0 3.0 2 5
+ 0.410008 2 3 cbr 500 ------- 2 1.0 3.0 2 5
- 0.410008 2 3 cbr 500 ------- 2 1.0 3.0 2 5
+ 0.41125 0 2 cbr 210 ------- 1 0.0 3.0 83 146
- 0.41125 0 2 cbr 210 ------- 1 0.0 3.0 83 146
r 0.411253 0 2 cbr 210 ------- 1 0.0 3.0 3 6
+ 0.411253 2 3 cbr 210 ------- 1 0.0 3.0 3 6
- 0.412008 2 3 cbr 210 ------- 1 0.0 3.0 3 6
+ 0.415 0 2 cbr 210 ------- 1 0.0 3.0 84 147
- 0.415 0 2 cbr 210 ------- 1 0.0 3.0 84 147
+ 0.415 1 2 cbr 500 ------- 2 1.0 3.0 63 148
- 0.415 1 2 cbr 500 ------- 2 1.0 3.0 63 148
r 0.415003 0 2 cbr 210 ------- 1 0.0 3.0 4 8
+ 0.415003 2 3 cbr 210 ------- 1 0.0 3.0 4 8
- 0.415003 2 3 cbr 210 ------- 1 0.0 3.0 4 8
r 0.415008 1 2 cbr 500 ------- 2 1.0 3.0 3 7
+ 0.415008 2 3 cbr 500 ------- 2 1.0 3.0 3 7
- 0.415843 2 3 cbr 500 ------- 2 1.0 3.0 3 7
+ 0.41875 0 2 cbr 210 ------- 1 0.0 3.0 85 149
- 0.41875 0 2 cbr 210 ------- 1 0.0 3.0 85 149
r 0.418753 0 2 cbr 210 ------- 1 0.0 3.0 5 9
+ 0.418753 2 3 cbr 210 ------- 1 0.0 3.0 5 9
- 0.418753 2 3 cbr 210 ------- 1 0.0 3.0 5 9
+ 0.42 1 2 cbr 500 ------- 2 1.0 3.0 64 150
- 0.42 1 2 cbr 500 ------- 2 1.0 3.0 64 150
r 0.420008 1 2 cbr 500 ------- 2 1.0 3.0 4 10
+ 0.420008 2 3 cbr 500 ------- 2 1.0 3.0 4 10
- 0.420008 2 3 cbr 500 ------- 2 1.0 3.0 4 10
+ 0.4225 0 2 cbr 210 ------- 1 0.0 3.0 86 151
- 0.4225 0 2 cbr 210 ------- 1 0.0 3.0 86 151
r 0.422503 0 2 cbr 210 ------- 1 0.0 3.0 6 11
+ 0.422503 2 3 cbr 210 ------- 1 0.0 3.0 6 11
- 0.422503 2 3 cbr 210 ------- 1 0.0 3.0 6 11
+ 0.425 1 2 cbr 500 ------- 2 1.0 3.0 65 152
- 0.425 1 2 cbr 500 ------- 2 1.0 3.0 65 152
r 0.425008 1 2 cbr 500 ------- 2 1.0 3.0 5 12
+ 0.425008 2 3 cbr 500 ------- 2 1.0 3.0 5 12
- 0.425008 2 3 cbr 500 ------- 2 1.0 3.0 5 12
+ 0.42625 0 2 cbr 210 ------- 1 0.0 3.0 87 153
- 0.42625 0 2 cbr 210 ------- 1 0.0 3.0 87 153
r 0.426253 0 2 cbr 210 ------- 1 0.0 3.0 7 13
+ 0.426253 2 3 cbr 210 ------- 1 0.0 3.0 7 13
- 0.427008 2 3 cbr 210 ------- 1 0.0 3.0 7 13
+ 0.43 0 2 cbr 210 ------- 1 0.0 3.0 88 154
- 0.43 0 2 cbr 210 ------- 1 0.0 3.0 88 154
+ 0.43 1 2 cbr 500 ------- 2 1.0 3.0 66 155
- 0.43 1 2 cbr 500 ------- 2 1.0 3.0 66 155
r 0.430003 0 2 cbr 210 ------- 1 0.0 3.0 8 15
+ 0.430003 2 3 cbr 210 ------- 1 0.0 3.0 8 15
- 0.430003 2 3 cbr 210 ------- 1 0.0 3.0 8 15
r 0.430008 1 2 cbr 500 ------- 2 1.0 3.0 6 14
+ 0.430008 2 3 cbr 500 ------- 2 1.0 3.0 6 14
- 0.430843 2 3 cbr 500 ------- 2 1.0 3.0 6 14
+ 0.43375 0 2 cbr 210 ------- 1 0.0 3.0 89 156
- 0.43375 0 2 cbr 210 ------- 1 0.0 3.0 89 156
r 0.433753 0 2 cbr 210 ------- 1 0.0 3.0 9 16
+ 0.433753 2 3 cbr 210 ------- 1 0.0 3.0 9 16
- 0.433753 2 3 cbr 210 ------- 1 0.0 3.0 9 16
+ 0.435 1 2 cbr 500 ------- 2 1.0 3.0 67 157
- 0.435 1 2 cbr 500 ------- 2 1.0 3.0 67 157
r 0.435008 1 2 cbr 500 ------- 2 1.0 3.0 7 17
+ 0.435008 2 3 cbr 500 ------- 2 1.0 3.0 7 17
- 0.435008 2 3 cbr 500 ------- 2 1.0 3.0 7 17
+ 0.4375 0 2 cbr 210 ------- 1 0.0 3.0 90 158
- 0.4375 0 2 cbr 210 ------- 1 0.0 3.0 90 158
r 0.437503 0 2 cbr 210 ------- 1 0.0 3.0 10 18
+ 0.437503 2 3 cbr 210 ------- 1 0.0 3.0 10 18
- 0.437503 2 3 cbr 210 ------- 1 0.0 3.0 10 18
+ 0.44 1 2 cbr 500 ------- 2 1.0 3.0 68 159
- 0.44 1 2 cbr 500 ------- 2 1.0 3.0 68 159
r 0.440008 1 2 cbr 500 ------- 2 1.0 3.0 8 19
+ 0.440008 2 3 cbr 500 ------- 2 1.0 3.0 8 19
- 0.440008 2 3 cbr 500 ------- 2 1.0 3.0 8 19
+ 0.44125 0 2 cbr 210 ------- 1 0.0 3.0 91 160
- 0.44125 0 2 cbr 210 ------- 1 0.0 3.0 91 160
r 0.441253 0 2 cbr 210 ------- 1 0.0 3.0 11 20
+ 0.441253 2 3 cbr 210 ------- 1 0.0 3.0 11 20
- 0.442008 2 3 cbr 210 ------- 1 0.0 3.0 11 20
+ 0.445 0 2 cbr 210 ------- 1 0.0 3.0 92 161
- 0.445 0 2 cbr 210 ------- 1 0.0 3.0 92 161
+ 0.445 1 2 cbr 500 ------- 2 1.0 3.0 69 162
- 0.445 1 2 cbr 500 ------- 2 1.0 3.0 69 162
r 0.445003 0 2 cbr 210 ------- 1 0.0 3.0 12 22
+ 0.445003 2 3 cbr 210 ------- 1 0.0 3.0 12 22
- 0.445003 2 3 cbr 210 ------- 1 0.0 3.0 12 22
r 0.445008 1 2 cbr 500 ------- 2 1.0 3.0 9 21
+ 0.445008 2 3 cbr 500 ------- 2 1.0 3.0 9 21
- 0.445843 2 3 cbr 500 ------- 2 1.0 3.0 9 21
+ 0.44875 0 2 cbr 210 ------- 1 0.0 3.0 93 163
- 0.44875 0 2 cbr 210 ------- 1 0.0 3.0 93 163
r 0.448753 0 2 cbr 210 ------- 1 0.0 3.0 13 23
+ 0.448753 2 3 cbr 210 ------- 1 0.0 3.0 13 23
- 0.448753 2 3 cbr 210 ------- 1 0.0 3.0 13 23
+ 0.45 1 2 cbr 500 ------- 2 1.0 3.0 70 164
- 0.45 1 2 cbr 500 ------- 2 1.0 3.0 70 164
r 0.450008 1 2 cbr 500 ------- 2 1.0 3.0 10 24
+ 0.450008 2 3 cbr 500 ------- 2 1.0 3.0 10 24
- 0.450008 2 3 cbr 500 ------- 2 1.0 3.0 10 24
+ 0.4525 0 2 cbr 210 ------- 1 0.0 3.0 94 165
- 0.4525 0 2 cbr 210 ------- 1 0.0 3.0 94 165
r 0.452503 0 2 cbr 210 ------- 1 0.0 3.0 14 25
+ 0.452503 2 3 cbr 210 ------- 1 0.0 3.0 14 25
- 0.452503 2 3 cbr 210 ------- 1 0.0 3.0 14 25
+ 0.455 1 2 cbr 500 ------- 2 1.0 3.0 71 166
- 0.455 1 2 cbr 500 ------- 2 1.0 3.0 71 166
r 0.455008 1 2 cbr 500 ------- 2 1.0 3.0 11 26
+ 0.455008 2 3 cbr 500 ------- 2 1.0 3.0 11 26
- 0.455008 2 3 cbr 500 ------- 2 1.0 3.0 11 26
+ 0.45625 0 2 cbr 210 ------- 1 0.0 3.0 95 167
- 0.45625 0 2 cbr 210 ------- 1 0.0 3.0 95 167
r 0.456253 0 2 cbr 210 ------- 1 0.0 3.0 15 27
+ 0.456253 2 3 cbr 210 ------- 1 0.0 3.0 15 27
- 0.457008 2 3 cbr 210 ------- 1 0.0 3.0 15 27
+ 0.46 0 2 cbr 210 ------- 1 0.0 3.0 96 168
- 0.46 0 2 cbr 210 ------- 1 0.0 3.0 96 168
+ 0.46 1 2 cbr 500 ------- 2 1.0 3.0 72 169
- 0.46 1 2 cbr 500 ------- 2 1.0 3.0 72 169
r 0.460003 0 2 cbr 210 ------- 1 0.0 3.0 16 29
+ 0.460003 2 3 cbr 210 ------- 1 0.0 3.0 16 29
- 0.460003 2 3 cbr 210 ------- 1 0.0 3.0 16 29
r 0.460008 1 2 cbr 500 ------- 2 1.0 3.0 12 28
+ 0.460008 2 3 cbr 500 ------- 2 1.0 3.0 12 28
- 0.460843 2 3 cbr 500 ------- 2 1.0 3.0 12 28
+ 0.46375 0 2 cbr 210 ------- 1 0.0 3.0 97 170
- 0.46375 0 2 cbr 210 ------- 1 0.0 3.0 97 170
r 0.463753 0 2 cbr 210 ------- 1 0.0 3.0 17 30
+ 0.463753 2 3 cbr 210 ------- 1 0.0 3.0 17 30
- 0.463753 2 3 cbr 210 ------- 1 0.0 3.0 17 30
+ 0.465 1 2 cbr 500 ------- 2 1.0 3.0 73 171
- 0.465 1 2 cbr 500 ------- 2 1.0 3.0 73 171
r 0.465008 1 2 cbr 500 ------- 2 1.0 3.0 13 31
+ 0.465008 2 3 cbr 500 ------- 2 1.0 3.0 13 31
- 0.465008 2 3 cbr 500 ------- 2 1.0 3.0 13 31
+ 0.4675 0 2 cbr 210 ------- 1 0.0 3.0 98 172
- 0.4675 0 2 cbr 210 ------- 1 0.0 3.0 98 172
r 0.467503 0 2 cbr 210 ------- 1 0.0 3.0 18 32
+ 0.467503 2 3 cbr 210 ------- 1 0.0 3.0 18 32
- 0.467503 2 3 cbr 210 ------- 1 0.0 3.0 18 32
+ 0.47 1 2 cbr 500 ------- 2 1.0 3.0 74 173
- 0.47 1 2 cbr 500 ------- 2 1.0 3.0 74 173
r 0.470008 1 2 cbr 500 ------- 2 1.0 3.0 14 33
+ 0.470008 2 3 cbr 500 ------- 2 1.0 3.0 14 33
- 0.470008 2 3 cbr 500 ------- 2 1.0 3.0 14 33
+ 0.47125 0 2 cbr 210 ------- 1 0.0 3.0 99 174
- 0.47125 0 2 cbr 210 ------- 1 0.0 3.0 99 174
r 0.471253 0 2 cbr 210 ------- 1 0.0 3.0 19 34
+ 0.471253 2 3 cbr 210 ------- 1 0.0 3.0 19 34
- 0.472008 2 3 cbr 210 ------- 1 0.0 3.0 19 34
+ 0.475 0 2 cbr 210 ------- 1 0.0 3.0 100 175
- 0.475 0 2 cbr 210 ------- 1 0.0 3.0 100 175
+ 0.475 1 2 cbr 500 ------- 2 1.0 3.0 75 176
- 0.475 1 2 cbr 500 ------- 2 1.0 3.0 75 176
r 0.475003 0 2 cbr 210 ------- 1 0.0 3.0 20 36
+ 0.475003 2 3 cbr 210 ------- 1 0.0 3.0 20 36
- 0.475003 2 3 cbr 210 ------- 1 0.0 3.0 20 36
r 0.475008 1 2 cbr 500 ------- 2 1.0 3.0 15 35
+ 0.475008 2 3 cbr 500 ------- 2 1.0 3.0 15 35
- 0.475843 2 3 cbr 500 ------- 2 1.0 3.0 15 35
+ 0.47875 0 2 cbr 210 ------- 1 0.0 3.0 101 177
- 0.47875 0 2 cbr 210 ------- 1 0.0 3.0 101 177
r 0.478753 0 2 cbr 210 ------- 1 0.0 3.0 21 37
+ 0.478753 2 3 cbr 210 ------- 1 0.0 3.0 21 37
- 0.478753 2 3 cbr 210 ------- 1 0.0 3.0 21 37
+ 0.48 1 2 cbr 500 ------- 2 1.0 3.0 76 178
- 0.48 1 2 cbr 500 ------- 2 1.0 3.0 76 178
r 0.480008 1 2 cbr 500 ------- 2 1.0 3.0 16 38
+ 0.480008 2 3 cbr 500 ------- 2 1.0 3.0 16 38
- 0.480008 2 3 cbr 500 ------- 2 1.0 3.0 16 38
+ 0.4825 0 2 cbr 210 ------- 1 0.0 3.0 102 179
- 0.4825 0 2 cbr 210 ------- 1 0.0 3.0 102 179
r 0.482503 0 2 cbr 210 ------- 1 0.0 3.0 22 39
+ 0.482503 2 3 cbr 210 ------- 1 0.0 3.0 22 39
- 0.482503 2 3 cbr 210 ------- 1 0.0 3.0 22 39
+ 0.485 1 2 cbr 500 ------- 2 1.0 3.0 77 180
- 0.485 1 2 cbr 500 ------- 2 1.0 3.0 77 180
r 0.485008 1 2 cbr 500 ------- 2 1.0 3.0 17 40
+ 0.485008 2 3 cbr 500 ------- 2 1.0 3.0 17 40
- 0.485008 2 3 cbr 500 ------- 2 1.0 3.0 17 40
+ 0.48625 0 2 cbr 210 ------- 1 0.0 3.0 103 181
- 0.48625 0 2 cbr 210 ------- 1 0.0 3.0 103 181
r 0.486253 0 2 cbr 210 ------- 1 0.0 3.0 23 41
+ 0.486253 2 3 cbr 210 ------- 1 0.0 3.0 23 41
- 0.487008 2 3 cbr 210 ------- 1 0.0 3.0 23 41
+ 0.49 0 2 cbr 210 ------- 1 0.0 3.0 104 182
- 0.49 0 2 cbr 210 ------- 1 0.0 3.0 104 182
+ 0.49 1 2 cbr 500 ------- 2 1.0 3.0 78 183
- 0.49 1 2 cbr 500 ------- 2 1.0 3.0 78 183
r 0.490003 0 2 cbr 210 ------- 1 0.0 3.0 24 43
+ 0.490003 2 3 cbr 210 ------- 1 0.0 3.0 24 43
- 0.490003 2 3 cbr 210 ------- 1 0.0 3.0 24 43
r 0.490008 1 2 cbr 500 ------- 2 1.0 3.0 18 42
+ 0.490008 2 3 cbr 500 ------- 2 1.0 3.0 18 42
- 0.490843 2 3 cbr 500 ------- 2 1.0 3.0 18 42
+ 0.49375 0 2 cbr 210 ------- 1 0.0 3.0 105 184
- 0.49375 0 2 cbr 210 ------- 1 0.0 3.0 105 184
r 0.493753 0 2 cbr 210 ------- 1 0.0 3.0 25 44
+ 0.493753 2 3 cbr 210 ------- 1 0.0 3.0 25 44
- 0.493753 2 3 cbr 210 ------- 1 0.0 3.0 25 44
+ 0.495 1 2 cbr 500 ------- 2 1.0 3.0 79 185
- 0.495 1 2 cbr 500 ------- 2 1.0 3.0 79 185
r 0.495008 1 2 cbr 500 ------- 2 1.0 3.0 19 45
+ 0.495008 2 3 cbr 500 ------- 2 1.0 3.0 19 45
- 0.495008 2 3 cbr 500 ------- 2 1.0 3.0 19 45
+ 0.4975 0 2 cbr 210 ------- 1 0.0 3.0 106 186
- 0.4975 0 2 cbr 210 ------- 1 0.0 3.0 106 186
r 0.497503 0 2 cbr 210 ------- 1 0.0 3.0 26 46
+ 0.497503 2 3 cbr 210 ------- 1 0.0 3.0 26 46
- 0.497503 2 3 cbr 210 ------- 1 0.0 3.0 26 46
+ 0.5 1 2 cbr 500 ------- 2 1.0 3.0 80 187
- 0.5 1 2 cbr 500 ------- 2 1.0 3.0 80 187
r 0.500008 1 2 cbr 500 ------- 2 1.0 3.0 20 47
+ 0.500008 2 3 cbr 500 ------- 2 1.0 3.0 20 47
- 0.500008 2 3 cbr 500 ------- 2 1.0 3.0 20 47
+ 0.50125 0 2 cbr 210 ------- 1 0.0 3.0 107 188
- 0.50125 0 2 cbr 210 ------- 1 0.0 3.0 107 188
r 0.501253 0 2 cbr 210 ------- 1 0.0 3.0 27 48
+ 0.501253 2 3 cbr 210 ------- 1 0.0 3.0 27 48
- 0.502008 2 3 cbr 210 ------- 1 0.0 3.0 27 48
+ 0.505 0 2 cbr 210 ------- 1 0.0 3.0 108 189
- 0.505 0 2 cbr 210 ------- 1 0.0 3.0 108 189
+ 0.505 1 2 cbr 500 ------- 2 1.0 3.0 81 190
- 0.505 1 2 cbr 500 ------- 2 1.0 3.0 81 190
r 0.505003 0 2 cbr 210 ------- 1 0.0 3.0 28 50
+ 0.505003 2 3 cbr 210 ------- 1 0.0 3.0 28 50
- 0.505003 2 3 cbr 210 ------- 1 0.0 3.0 28 50
r 0.505008 1 2 cbr 500 ------- 2 1.0 3.0 21 49
+ 0.505008 2 3 cbr 500 ------- 2 1.0 3.0 21 49
- 0.505843 2 3 cbr 500 ------- 2 1.0 3.0 21 49
+ 0.50875 0 2 cbr 210 ------- 1 0.0 3.0 109 191
- 0.50875 0 2 cbr 210 ------- 1 0.0 3.0 109 191
r 0.508753 0 2 cbr 210 ------- 1 0.0 3.0 29 51
+ 0.508753 2 3 cbr 210 ------- 1 0.0 3.0 29 51
- 0.508753 2 3 cbr 210 ------- 1 0.0 3.0 29 51
+ 0.51 1 2 cbr 500 ------- 2 1.0 3.0 82 192
- 0.51 1 2 cbr 500 ------- 2 1.0 3.0 82 192
r 0.510008 1 2 cbr 500 ------- 2 1.0 3.0 22 52
+ 0.510008 2 3 cbr 500 ------- 2 1.0 3.0 22 52
- 0.510008 2 3 cbr 500 ------- 2 1.0 3.0 22 52
+ 0.5125 0 2 cbr 210 ------- 1 0.0 3.0 110 193
- 0.5125 0 2 cbr 210 ------- 1 0.0 3.0 110 193
r 0.512503 0 2 cbr 210 ------- 1 0.0 3.0 30 53
+ 0.512503 2 3 cbr 210 ------- 1 0.0 3.0 30 53
- 0.512503 2 3 cbr 210 ------- 1 0.0 3.0 30 53
+ 0.515 1 2 cbr 500 ------- 2 1.0 3.0 83 194
- 0.515 1 2 cbr 500 ------- 2 1.0 3.0 83 194
r 0.515008 1 2 cbr 500 ------- 2 1.0 3.0 23 54
+ 0.515008 2 3 cbr 500 ------- 2 1.0 3.0 23 54
- 0.515008 2 3 cbr 500 ------- 2 1.0 3.0 23 54
+ 0.51625 0 2 cbr 210 ------- 1 0.0 3.0 111 195
- 0.51625 0 2 cbr 210 ------- 1 0.0 3.0 111 195
r 0.516253 0 2 cbr 210 ------- 1 0.0 3.0 31 55
+ 0.516253 2 3 cbr 210 ------- 1 0.0 3.0 31 55
- 0.517008 2 3 cbr 210 ------- 1 0.0 3.0 31 55
+ 0.52 0 2 cbr 210 ------- 1 0.0 3.0 112 196
- 0.52 0 2 cbr 210 ------- 1 0.0 3.0 112 196
+ 0.52 1 2 cbr 500 ------- 2 1.0 3.0 84 197
- 0.52 1 2 cbr 500 ------- 2 1.0 3.0 84 197
r 0.520003 0 2 cbr 210 ------- 1 0.0 3.0 32 57
+ 0.520003 2 3 cbr 210 ------- 1 0.0 3.0 32 57
- 0.520003 2 3 cbr 210 ------- 1 0.0 3.0 32 57
r 0.520008 1 2 cbr 500 ------- 2 1.0 3.0 24 56
+ 0.520008 2 3 cbr 500 ------- 2 1.0 3.0 24 56
- 0.520843 2 3 cbr 500 ------- 2 1.0 3.0 24 56
+ 0.52375 0 2 cbr 210 ------- 1 0.0 3.0 113 198
- 0.52375 0 2 cbr 210 ------- 1 0.0 3.0 113 198
r 0.523753 0 2 cbr 210 ------- 1 0.0 3.0 33 58
+ 0.523753 2 3 cbr 210 ------- 1 0.0 3.0 33 58
- 0.523753 2 3 cbr 210 ------- 1 0.0 3.0 33 58
+ 0.525 1 2 cbr 500 ------- 2 1.0 3.0 85 199
- 0.525 1 2 cbr 500 ------- 2 1.0 3.0 85 199
r 0.525008 1 2 cbr 500 ------- 2 1.0 3.0 25 59
+ 0.525008 2 3 cbr 500 ------- 2 1.0 3.0 25 59
- 0.525008 2 3 cbr 500 ------- 2 1.0 3.0 25 59
+ 0.5275 0 2 cbr 210 ------- 1 0.0 3.0 114 200
- 0.5275 0 2 cbr 210 ------- 1 0.0 3.0 114 200
r 0.527503 0 2 cbr 210 ------- 1 0.0 3.0 34 60
+ 0.527503 2 3 cbr 210 ------- 1 0.0 3.0 34 60
- 0.527503 2 3 cbr 210 ------- 1 0.0 3.0 34 60
+ 0.53 1 2 cbr 500 ------- 2 1.0 3.0 86 201
- 0.53 1 2 cbr 500 ------- 2 1.0 3.0 86 201
r 0.530008 1 2 cbr 500 ------- 2 1.0 3.0 26 61
+ 0.530008 2 3 cbr 500 ------- 2 1.0 3.0 26 61
- 0.530008 2 3 cbr 500 ------- 2 1.0 3.0 26 61
+ 0.53125 0 2 cbr 210 ------- 1 0.0 3.0 115 202
- 0.53125 0 2 cbr 210 ------- 1 0.0 3.0 115 202
r 0.531253 0 2 cbr 210 ------- 1 0.0 3.0 35 62
+ 0.531253 2 3 cbr 210 ------- 1 0.0 3.0 35 62
- 0.532008 2 3 cbr 210 ------- 1 0.0 3.0 35 62
+ 0.535 0 2 cbr 210 ------- 1 0.0 3.0 116 203
- 0.535 0 2 cbr 210 ------- 1 0.0 3.0 116 203
+ 0.535 1 2 cbr 500 ------- 2 1.0 3.0 87 204
- 0.535 1 2 cbr 500 ------- 2 1.0 3.0 87 204
r 0.535003 0 2 cbr 210 ------- 1 0.0 3.0 36 64
+ 0.535003 2 3 cbr 210 ------- 1 0.0 3.0 36 64
- 0.535003 2 3 cbr 210 ------- 1 0.0 3.0 36 64
r 0.535008 1 2 cbr 500 ------- 2 1.0 3.0 27 63
+ 0.535008 2 3 cbr 500 ------- 2 1.0 3.0 27 63
- 0.535843 2 3 cbr 500 ------- 2 1.0 3.0 27 63
+ 0.53875 0 2 cbr 210 ------- 1 0.0 3.0 117 205
- 0.53875 0 2 cbr 210 ------- 1 0.0 3.0 117 205
r 0.538753 0 2 cbr 210 ------- 1 0.0 3.0 37 65
+ 0.538753 2 3 cbr 210 ------- 1 0.0 3.0 37 65
- 0.538753 2 3 cbr 210 ------- 1 0.0 3.0 37 65
+ 0.54 1 2 cbr 500 ------- 2 1.0 3.0 88 206
- 0.54 1 2 cbr 500 ------- 2 1.0 3.0 88 206
r 0.540008 1 2 cbr 500 ------- 2 1.0 3.0 28 66
+ 0.540008 2 3 cbr 500 ------- 2 1.0 3.0 28 66
- 0.540008 2 3 cbr 500 ------- 2 1.0 3.0 28 66
+ 0.5425 0 2 cbr 210 ------- 1 0.0 3.0 118 207
- 0.5425 0 2 cbr 210 ------- 1 0.0 3.0 118 207
r 0.542503 0 2 cbr 210 ------- 1 0.0 3.0 38 67
+ 0.542503 2 3 cbr 210 ------- 1 0.0 3.0 38 67
- 0.542503 2 3 cbr 210 ------- 1 0.0 3.0 38 67
+ 0.545 1 2 cbr 500 ------- 2 1.0 3.0 89 208
- 0.545 1 2 cbr 500 ------- 2 1.0 3.0 89 208
r 0.545008 1 2 cbr 500 ------- 2 1.0 3.0 29 68
+ 0.545008 2 3 cbr 500 ------- 2 1.0 3.0 29 68
- 0.545008 2 3 cbr 500 ------- 2 1.0 3.0 29 68
+ 0.54625 0 2 cbr 210 ------- 1 0.0 3.0 119 209
- 0.54625 0 2 cbr 210 ------- 1 0.0 3.0 119 209
r 0.546253 0 2 cbr 210 ------- 1 0.0 3.0 39 69
+ 0.546253 2 3 cbr 210 ------- 1 0.0 3.0 39 69
- 0.547008 2 3 cbr 210 ------- 1 0.0 3.0 39 69
+ 0.55 0 2 cbr 210 ------- 1 0.0 3.0 120 210
- 0.55 0 2 cbr 210 ------- 1 0.0 3.0 120 210
+ 0.55 1 2 cbr 500 ------- 2 1.0 3.0 90 211
- 0.55 1 2 cbr 500 ------- 2 1.0 3.0 90 211
r 0.550003 0 2 cbr 210 ------- 1 0.0 3.0 40 71
+ 0.550003 2 3 cbr 210 ------- 1 0.0 3.0 40 71
- 0.550003 2 3 cbr 210 ------- 1 0.0 3.0 40 71
r 0.550008 1 2 cbr 500 ------- 2 1.0 3.0 30 70
+ 0.550008 2 3 cbr 500 ------- 2 1.0 3.0 30 70
- 0.550843 2 3 cbr 500 ------- 2 1.0 3.0 30 70
+ 0.55375 0 2 cbr 210 ------- 1 0.0 3.0 121 212
- 0.55375 0 2 cbr 210 ------- 1 0.0 3.0 121 212
r 0.553753 0 2 cbr 210 ------- 1 0.0 3.0 41 72
+ 0.553753 2 3 cbr 210 ------- 1 0.0 3.0 41 72
- 0.553753 2 3 cbr 210 ------- 1 0.0 3.0 41 72
+ 0.555 1 2 cbr 500 ------- 2 1.0 3.0 91 213
- 0.555 1 2 cbr 500 ------- 2 1.0 3.0 91 213
r 0.555008 1 2 cbr 500 ------- 2 1.0 3.0 31 73
+ 0.555008 2 3 cbr 500 ------- 2 1.0 3.0 31 73
- 0.555008 2 3 cbr 500 ------- 2 1.0 3.0 31 73
+ 0.5575 0 2 cbr 210 ------- 1 0.0 3.0 122 214
- 0.5575 0 2 cbr 210 ------- 1 0.0 3.0 122 214
r 0.557503 0 2 cbr 210 ------- 1 0.0 3.0 42 74
+ 0.557503 2 3 cbr 210 ------- 1 0.0 3.0 42 74
- 0.557503 2 3 cbr 210 ------- 1 0.0 3.0 42 74
+ 0.56 1 2 cbr 500 ------- 2 1.0 3.0 92 215
- 0.56 1 2 cbr 500 ------- 2 1.0 3.0 92 215
r 0.560008 1 2 cbr 500 ------- 2 1.0 3.0 32 75
+ 0.560008 2 3 cbr 500 ------- 2 1.0 3.0 32 75